LAMMPS (23 Oct 2017)
# This file runs a simple bouncing ball simulation in LAMMPS.
#~~~~~~~~~~~~~~~~~~~~~~~~~~~~~~~~~~~~~~~~~~~~~~~~~~~~~~~~~~~~~~~~~~~~~
variable G equal 2.9e4
variable nu equal 0.2
variable mu equal 0.25

variable Kn equal 4*$G/(3*(1-${nu}))
variable Kn equal 4*29000/(3*(1-${nu}))
variable Kn equal 4*29000/(3*(1-0.2))
variable Kt equal 4*$G/(2-${nu})
variable Kt equal 4*29000/(2-${nu})
variable Kt equal 4*29000/(2-0.2)

# Initialisation ~~~~~~~~~~~~~~~~~~~~~~~~~~~~~~~~~~~~~~~~~~~~~~~~~~~~~
units		si # This means m, kg, s for base units.
boundary	p p f
atom_style	sphere
dimension	3
newton		off
comm_modify	mode single vel yes

# Create particles ~~~~~~~~~~~~~~~~~~~~~~~~~~~~~~~~~~~~~~~~~~~~~~~~~~~
atom_modify 	map array # specifies how neighbour list is set up
read_data	Bouncing_Ball.lj
  orthogonal box = (0 0 0) to (0.0015 0.0015 0.0025)
  2 by 2 by 2 MPI processor grid
  reading atoms ...
  1 atoms
  reading velocities ...
  1 velocities

# Pre-fix settings ~~~~~~~~~~~~~~~~~~~~~~~~~~~~~~~~~~~~~~~~~~~~~~~~~~~
neighbor	0.001 bin # ~10% of diameter of largest particle
neigh_modify	delay 0 every 50

pair_style	gran/hertz/history ${Kn} ${Kt} 0. 0. ${mu} 0
pair_style	gran/hertz/history 48333.3333333333 ${Kt} 0. 0. ${mu} 0
pair_style	gran/hertz/history 48333.3333333333 64444.4444444444 0. 0. ${mu} 0
pair_style	gran/hertz/history 48333.3333333333 64444.4444444444 0. 0. 0.25 0
pair_coeff	* *
timestep	1e-5
run_style	verlet

fix		    1 all nve/sphere
variable	g equal 9.81 # Add gravity
#fix 		2 all gravity $g vector 0 0 -1
# Add wall position and contact parameters
fix 		3 all wall/gran hertz/history ${Kn} ${Kt} 0. 0. ${mu} 0 zplane 0.000000 1.0
fix 		3 all wall/gran hertz/history 48333.3333333333 ${Kt} 0. 0. ${mu} 0 zplane 0.000000 1.0
fix 		3 all wall/gran hertz/history 48333.3333333333 64444.4444444444 0. 0. ${mu} 0 zplane 0.000000 1.0
fix 		3 all wall/gran hertz/history 48333.3333333333 64444.4444444444 0. 0. 0.25 0 zplane 0.000000 1.0

variable 	step equal step
variable	xz equal z[1]
variable	vz equal vz[1]
variable	forcez equal fz[1]

fix 		4 all print 5 "${step} ${xz} ${vz} ${forcez}" file thermo_output.txt screen yes
fix         5 all cpl/init region all forcetype test sendtype velocity Nfreq 50 Nrepeat 50 Nevery 1
compute cfdbccompute all chunk/atom bin/3d x lower 0.0001875 y lower 0.0001875 z lower 0.0003125 ids every region cfdbcregion units box  bound x 0 0.0015 bound y 0 0.0015 bound z 0 0.0025
fix cfdbcfix all ave/chunk 1 50 50 cfdbccompute vx vy vz norm all
variable CPLSTEPS equal 0
group cplforcegroup dynamic all region cplforceregion every 1
dynamic group cplforcegroup defined

#dump        6 all dcd 10 vmd_out.dcd

run		    5000
WARNING: One or more dynamic groups may not be updated at correct point in timestep (../fix_group.cpp:153)
Neighbor list info ...
  update every 50 steps, delay 0 steps, check yes
  max neighbors/atom: 2000, page size: 100000
  master list distance cutoff = 0.00135
  ghost atom cutoff = 0.00135
  binsize = 0.000675, bins = 3 3 4
  1 neighbor lists, perpetual/occasional/extra = 1 0 0
  (1) pair gran/hertz/history, perpetual
      attributes: half, newton off, size, history
      pair build: half/size/bin/newtoff
      stencil: half/bin/3d/newtoff
      bin: standard
WARNING: Proc sub-domain size < neighbor skin, could lead to lost atoms (../domain.cpp:968)
Per MPI rank memory allocation (min/avg/max) = 10.49 | 10.49 | 10.49 Mbytes
Step Temp E_pair E_mol TotEng Press 
       0            0            0            0            0            0 
5 0.0011999877375 -0.0004905 -5.8360316255694e-07
10 0.00119995095 -0.000981 -5.8360316255694e-07
15 0.0011998896375 -0.0014715 -5.8360316255694e-07
20 0.0011998038 -0.001962 -5.8360316255694e-07
25 0.0011996934375 -0.0024525 -5.8360316255694e-07
30 0.00119955855 -0.002943 -5.8360316255694e-07
35 0.0011993991375 -0.0034335 -5.8360316255694e-07
40 0.0011992152 -0.003924 -5.8360316255694e-07
45 0.0011990067375 -0.00441450000000001 -5.8360316255694e-07
50 0.00119877375 -0.00490500000000001 -5.8360316255694e-07
55 0.0011985162375 -0.00539550000000001 -5.8360316255694e-07
60 0.0011982342 -0.00588600000000001 -5.8360316255694e-07
65 0.0011979276375 -0.00637650000000001 -5.8360316255694e-07
70 0.00119759655 -0.00686700000000001 -5.8360316255694e-07
75 0.0011972409375 -0.00735750000000001 -5.8360316255694e-07
80 0.0011968608 -0.00784800000000001 -5.8360316255694e-07
85 0.0011964561375 -0.00833850000000002 -5.8360316255694e-07
90 0.00119602695 -0.00882900000000002 -5.8360316255694e-07
95 0.0011955732375 -0.00931950000000002 -5.8360316255694e-07
100 0.001195095 -0.00981000000000002 -5.8360316255694e-07
105 0.0011945922375 -0.0103005 -5.8360316255694e-07
110 0.00119406495 -0.010791 -5.8360316255694e-07
115 0.0011935131375 -0.0112815 -5.8360316255694e-07
120 0.0011929368 -0.011772 -5.8360316255694e-07
125 0.0011923359375 -0.0122625 -5.8360316255694e-07
130 0.00119171055 -0.012753 -5.8360316255694e-07
135 0.0011910606375 -0.0132435 -5.8360316255694e-07
140 0.0011903862 -0.013734 -5.8360316255694e-07
145 0.0011896872375 -0.0142245 -5.8360316255694e-07
150 0.00118896375 -0.014715 -5.8360316255694e-07
155 0.0011882157375 -0.0152055 -5.8360316255694e-07
160 0.0011874432 -0.015696 -5.8360316255694e-07
165 0.0011866461375 -0.0161865 -5.8360316255694e-07
170 0.00118582455 -0.016677 -5.8360316255694e-07
175 0.0011849784375 -0.0171675 -5.8360316255694e-07
180 0.0011841078 -0.017658 -5.8360316255694e-07
185 0.0011832126375 -0.0181485 -5.8360316255694e-07
190 0.00118229295 -0.0186389999999999 -5.8360316255694e-07
195 0.0011813487375 -0.0191294999999999 -5.8360316255694e-07
200 0.00118038 -0.0196199999999999 -5.8360316255694e-07
205 0.0011793867375 -0.0201104999999999 -5.8360316255694e-07
210 0.00117836895 -0.0206009999999999 -5.8360316255694e-07
215 0.0011773266375 -0.0210914999999999 -5.8360316255694e-07
220 0.0011762598 -0.0215819999999998 -5.8360316255694e-07
225 0.0011751684375 -0.0220724999999998 -5.8360316255694e-07
230 0.00117405255 -0.0225629999999998 -5.8360316255694e-07
235 0.0011729121375 -0.0230534999999998 -5.8360316255694e-07
240 0.0011717472 -0.0235439999999998 -5.8360316255694e-07
245 0.0011705577375 -0.0240344999999998 -5.8360316255694e-07
250 0.00116934375 -0.0245249999999997 -5.8360316255694e-07
255 0.0011681052375 -0.0250154999999997 -5.8360316255694e-07
260 0.0011668422 -0.0255059999999997 -5.8360316255694e-07
265 0.0011655546375 -0.0259964999999997 -5.8360316255694e-07
270 0.00116424255 -0.0264869999999997 -5.8360316255694e-07
275 0.0011629059375 -0.0269774999999997 -5.8360316255694e-07
280 0.0011615448 -0.0274679999999996 -5.8360316255694e-07
285 0.0011601591375 -0.0279584999999996 -5.8360316255694e-07
290 0.00115874895 -0.0284489999999996 -5.8360316255694e-07
295 0.0011573142375 -0.0289394999999996 -5.8360316255694e-07
300 0.001155855 -0.0294299999999996 -5.8360316255694e-07
305 0.0011543712375 -0.0299204999999996 -5.8360316255694e-07
310 0.00115286295 -0.0304109999999996 -5.8360316255694e-07
315 0.0011513301375 -0.0309014999999995 -5.8360316255694e-07
320 0.0011497728 -0.0313919999999995 -5.8360316255694e-07
325 0.0011481909375 -0.0318824999999996 -5.8360316255694e-07
330 0.00114658455 -0.0323729999999996 -5.8360316255694e-07
335 0.0011449536375 -0.0328634999999996 -5.8360316255694e-07
340 0.0011432982 -0.0333539999999996 -5.8360316255694e-07
345 0.0011416182375 -0.0338444999999996 -5.8360316255694e-07
350 0.00113991375 -0.0343349999999996 -5.8360316255694e-07
355 0.0011381847375 -0.0348254999999997 -5.8360316255694e-07
360 0.0011364312 -0.0353159999999997 -5.8360316255694e-07
365 0.0011346531375 -0.0358064999999997 -5.8360316255694e-07
370 0.00113285055 -0.0362969999999997 -5.8360316255694e-07
375 0.0011310234375 -0.0367874999999997 -5.8360316255694e-07
380 0.0011291718 -0.0372779999999998 -5.8360316255694e-07
385 0.0011272956375 -0.0377684999999998 -5.8360316255694e-07
390 0.00112539495 -0.0382589999999998 -5.8360316255694e-07
395 0.0011234697375 -0.0387494999999998 -5.8360316255694e-07
400 0.00112152 -0.0392399999999998 -5.8360316255694e-07
405 0.0011195457375 -0.0397304999999998 -5.8360316255694e-07
410 0.00111754695 -0.0402209999999999 -5.8360316255694e-07
415 0.0011155236375 -0.0407114999999999 -5.8360316255694e-07
420 0.0011134758 -0.0412019999999999 -5.8360316255694e-07
425 0.0011114034375 -0.0416924999999999 -5.8360316255694e-07
430 0.00110930655 -0.0421829999999999 -5.8360316255694e-07
435 0.0011071851375 -0.0426735 -5.8360316255694e-07
440 0.0011050392 -0.043164 -5.8360316255694e-07
445 0.0011028687375 -0.0436545 -5.8360316255694e-07
450 0.00110067375 -0.044145 -5.8360316255694e-07
455 0.0010984542375 -0.0446355 -5.8360316255694e-07
460 0.0010962102 -0.0451260000000001 -5.8360316255694e-07
465 0.0010939416375 -0.0456165000000001 -5.8360316255694e-07
470 0.00109164855 -0.0461070000000001 -5.8360316255694e-07
475 0.0010893309375 -0.0465975000000001 -5.8360316255694e-07
480 0.0010869888 -0.0470880000000001 -5.8360316255694e-07
485 0.0010846221375 -0.0475785000000001 -5.8360316255694e-07
490 0.00108223095 -0.0480690000000002 -5.8360316255694e-07
495 0.0010798152375 -0.0485595000000002 -5.8360316255694e-07
500 0.001077375 -0.0490500000000002 -5.8360316255694e-07
505 0.0010749102375 -0.0495405000000002 -5.8360316255694e-07
510 0.00107242095 -0.0500310000000002 -5.8360316255694e-07
515 0.0010699071375 -0.0505215000000003 -5.8360316255694e-07
520 0.0010673688 -0.0510120000000003 -5.8360316255694e-07
525 0.0010648059375 -0.0515025000000003 -5.8360316255694e-07
530 0.00106221855 -0.0519930000000003 -5.8360316255694e-07
535 0.0010596066375 -0.0524835000000003 -5.8360316255694e-07
540 0.0010569702 -0.0529740000000004 -5.8360316255694e-07
545 0.0010543092375 -0.0534645000000004 -5.8360316255694e-07
550 0.00105162375 -0.0539550000000004 -5.8360316255694e-07
555 0.0010489137375 -0.0544455000000004 -5.8360316255694e-07
560 0.0010461792 -0.0549360000000004 -5.8360316255694e-07
565 0.0010434201375 -0.0554265000000004 -5.8360316255694e-07
570 0.00104063655 -0.0559170000000005 -5.8360316255694e-07
575 0.0010378284375 -0.0564075000000005 -5.8360316255694e-07
580 0.0010349958 -0.0568980000000005 -5.8360316255694e-07
585 0.0010321386375 -0.0573885000000005 -5.8360316255694e-07
590 0.00102925695 -0.0578790000000005 -5.8360316255694e-07
595 0.0010263507375 -0.0583695000000006 -5.8360316255694e-07
600 0.00102342 -0.0588600000000006 -5.8360316255694e-07
605 0.0010204647375 -0.0593505000000006 -5.8360316255694e-07
610 0.00101748495 -0.0598410000000006 -5.8360316255694e-07
615 0.0010144806375 -0.0603315000000006 -5.8360316255694e-07
620 0.0010114518 -0.0608220000000007 -5.8360316255694e-07
625 0.0010083984375 -0.0613125000000007 -5.8360316255694e-07
630 0.00100532055 -0.0618030000000007 -5.8360316255694e-07
635 0.0010022181375 -0.0622935000000007 -5.8360316255694e-07
640 0.0009990912 -0.0627840000000007 -5.8360316255694e-07
645 0.000995939737499999 -0.0632745000000006 -5.8360316255694e-07
650 0.000992763749999999 -0.0637650000000006 -5.8360316255694e-07
655 0.000989563237499999 -0.0642555000000005 -5.8360316255694e-07
660 0.000986338199999999 -0.0647460000000005 -5.8360316255694e-07
665 0.000983088637499999 -0.0652365000000004 -5.8360316255694e-07
670 0.000979814549999999 -0.0657270000000004 -5.8360316255694e-07
675 0.000976515937499999 -0.0662175000000003 -5.8360316255694e-07
680 0.000973192799999999 -0.0667080000000003 -5.8360316255694e-07
685 0.000969845137499999 -0.0671985000000002 -5.8360316255694e-07
690 0.000966472949999999 -0.0676890000000002 -5.8360316255694e-07
695 0.000963076237499999 -0.0681795000000001 -5.8360316255694e-07
700 0.000959654999999999 -0.0686700000000001 -5.8360316255694e-07
705 0.000956209237499999 -0.0691605 -5.8360316255694e-07
710 0.000952738949999999 -0.069651 -5.8360316255694e-07
715 0.000949244137499999 -0.0701414999999999 -5.8360316255694e-07
720 0.000945724799999999 -0.0706319999999999 -5.8360316255694e-07
725 0.000942180937499999 -0.0711224999999998 -5.8360316255694e-07
730 0.000938612549999999 -0.0716129999999998 -5.8360316255694e-07
735 0.000935019637499999 -0.0721034999999997 -5.8360316255694e-07
740 0.000931402199999999 -0.0725939999999997 -5.8360316255694e-07
745 0.000927760237499999 -0.0730844999999996 -5.8360316255694e-07
750 0.000924093749999999 -0.0735749999999996 -5.8360316255694e-07
755 0.000920402737499999 -0.0740654999999995 -5.8360316255694e-07
760 0.000916687199999999 -0.0745559999999995 -5.8360316255694e-07
765 0.000912947137499999 -0.0750464999999994 -5.8360316255694e-07
770 0.000909182549999999 -0.0755369999999994 -5.8360316255694e-07
775 0.0009053934375 -0.0760274999999993 -5.8360316255694e-07
780 0.0009015798 -0.0765179999999993 -5.8360316255694e-07
785 0.0008977416375 -0.0770084999999992 -5.8360316255694e-07
790 0.00089387895 -0.0774989999999992 -5.8360316255694e-07
795 0.0008899917375 -0.0779894999999991 -5.8360316255694e-07
800 0.00088608 -0.0784799999999991 -5.8360316255694e-07
805 0.0008821437375 -0.078970499999999 -5.8360316255694e-07
810 0.00087818295 -0.079460999999999 -5.8360316255694e-07
815 0.0008741976375 -0.0799514999999989 -5.8360316255694e-07
820 0.0008701878 -0.0804419999999989 -5.8360316255694e-07
825 0.0008661534375 -0.0809324999999988 -5.8360316255694e-07
830 0.00086209455 -0.0814229999999988 -5.8360316255694e-07
835 0.0008580111375 -0.0819134999999987 -5.8360316255694e-07
840 0.0008539032 -0.0824039999999987 -5.8360316255694e-07
845 0.0008497707375 -0.0828944999999986 -5.8360316255694e-07
850 0.00084561375 -0.0833849999999986 -5.8360316255694e-07
855 0.0008414322375 -0.0838754999999985 -5.8360316255694e-07
860 0.0008372262 -0.0843659999999985 -5.8360316255694e-07
865 0.000832995637500001 -0.0848564999999984 -5.8360316255694e-07
870 0.000828740550000001 -0.0853469999999984 -5.8360316255694e-07
875 0.000824460937500001 -0.0858374999999983 -5.8360316255694e-07
880 0.000820156800000001 -0.0863279999999983 -5.8360316255694e-07
885 0.000815828137500001 -0.0868184999999982 -5.8360316255694e-07
890 0.000811474950000001 -0.0873089999999982 -5.8360316255694e-07
895 0.000807097237500001 -0.0877994999999981 -5.8360316255694e-07
900 0.000802695000000001 -0.0882899999999981 -5.8360316255694e-07
905 0.000798268237500001 -0.088780499999998 -5.8360316255694e-07
910 0.000793816950000001 -0.0892709999999979 -5.8360316255694e-07
915 0.000789341137500001 -0.0897614999999979 -5.8360316255694e-07
920 0.000784840800000001 -0.0902519999999978 -5.8360316255694e-07
925 0.000780315937500002 -0.0907424999999978 -5.8360316255694e-07
930 0.000775766550000002 -0.0912329999999977 -5.8360316255694e-07
935 0.000771192637500002 -0.0917234999999977 -5.8360316255694e-07
940 0.000766594200000002 -0.0922139999999976 -5.8360316255694e-07
945 0.000761971237500002 -0.0927044999999976 -5.8360316255694e-07
950 0.000757323750000002 -0.0931949999999975 -5.8360316255694e-07
955 0.000752651737500002 -0.0936854999999975 -5.8360316255694e-07
960 0.000747955200000002 -0.0941759999999974 -5.8360316255694e-07
965 0.000743234137500002 -0.0946664999999974 -5.8360316255694e-07
970 0.000738488550000002 -0.0951569999999973 -5.8360316255694e-07
975 0.000733718437500003 -0.0956474999999973 -5.8360316255694e-07
980 0.000728923800000003 -0.0961379999999972 -5.8360316255694e-07
985 0.000724104637500003 -0.0966284999999972 -5.8360316255694e-07
990 0.000719260950000003 -0.0971189999999971 -5.8360316255694e-07
995 0.000714392737500003 -0.0976094999999971 -5.8360316255694e-07
1000 0.000709500000000003 -0.098099999999997 -5.8360316255694e-07
1005 0.000704582737500003 -0.098590499999997 -5.8360316255694e-07
1010 0.000699640950000004 -0.0990809999999969 -5.8360316255694e-07
1015 0.000694674637500004 -0.0995714999999969 -5.8360316255694e-07
1020 0.000689683800000004 -0.100061999999997 -5.8360316255694e-07
1025 0.000684668437500004 -0.100552499999997 -5.8360316255694e-07
1030 0.000679628550000004 -0.101042999999997 -5.8360316255694e-07
1035 0.000674564137500005 -0.101533499999997 -5.8360316255694e-07
1040 0.000669475200000005 -0.102023999999997 -5.8360316255694e-07
1045 0.000664361737500005 -0.102514499999997 -5.8360316255694e-07
1050 0.000659223750000005 -0.103004999999997 -5.8360316255694e-07
1055 0.000654061237500005 -0.103495499999996 -5.8360316255694e-07
1060 0.000648874200000006 -0.103985999999996 -5.8360316255694e-07
1065 0.000643662637500006 -0.104476499999996 -5.8360316255694e-07
1070 0.000638426550000006 -0.104966999999996 -5.8360316255694e-07
1075 0.000633165937500006 -0.105457499999996 -5.8360316255694e-07
1080 0.000627880800000006 -0.105947999999996 -5.8360316255694e-07
1085 0.000622571137500006 -0.106438499999996 -5.8360316255694e-07
1090 0.000617236950000007 -0.106928999999996 -5.8360316255694e-07
1095 0.000611878237500007 -0.107419499999996 -5.8360316255694e-07
1100 0.000606495000000007 -0.107909999999996 -5.8360316255694e-07
1105 0.000601087237500007 -0.108400499999996 -5.8360316255694e-07
1110 0.000595654950000007 -0.108890999999996 -5.8360316255694e-07
1115 0.000590198137500008 -0.109381499999996 -5.8360316255694e-07
1120 0.000584716800000008 -0.109871999999996 -5.8360316255694e-07
1125 0.000579210937500008 -0.110362499999996 -5.8360316255694e-07
1130 0.000573680550000008 -0.110852999999996 -5.8360316255694e-07
1135 0.000568125637500008 -0.111343499999996 -5.8360316255694e-07
1140 0.000562546200000009 -0.111833999999996 -5.8360316255694e-07
1145 0.000556942237500009 -0.112324499999996 -5.8360316255694e-07
1150 0.000551313750000009 -0.112814999999996 -5.8360316255694e-07
1155 0.000545660737500009 -0.113305499999995 -5.8360316255694e-07
1160 0.00053998320000001 -0.113795999999995 -5.8360316255694e-07
1165 0.00053428113750001 -0.114286499999995 -5.8360316255694e-07
1170 0.00052855455000001 -0.114776999999995 -5.8360316255694e-07
1175 0.00052280343750001 -0.115267499999995 -5.8360316255694e-07
1180 0.00051702780000001 -0.115757999999995 -5.8360316255694e-07
1185 0.000511227637500011 -0.116248499999995 -5.8360316255694e-07
1190 0.000505402950000011 -0.116738999999995 -5.8360316255694e-07
1195 0.000499553737500011 -0.117229499999995 -5.8360316255694e-07
1200 0.000493680000000011 -0.117719999999995 -5.8360316255694e-07
1205 0.000487781737500012 -0.118210499999995 -5.8360316255694e-07
1210 0.000481858950000012 -0.118700999999995 -5.8360316255694e-07
1215 0.000475911637500012 -0.119191499999995 -5.8360316255694e-07
1220 0.000469939800000012 -0.119681999999995 -5.8360316255694e-07
1225 0.000463943437500013 -0.120172499999995 -5.8360316255694e-07
1230 0.000457922550000013 -0.120662999999995 -5.8360316255694e-07
1235 0.000451877137500013 -0.121153499999995 -5.8360316255694e-07
1240 0.000445807200000014 -0.121643999999995 -5.8360316255694e-07
1245 0.000439712737500014 -0.122134499999995 -5.8360316255694e-07
1250 0.000433593750000014 -0.122624999999995 -5.8360316255694e-07
1255 0.000427450237500014 -0.123115499999994 -5.8360316255694e-07
1260 0.000421282200000015 -0.123605999999994 -5.8360316255694e-07
1265 0.000415089637500015 -0.124096499999994 -5.8360316255694e-07
1270 0.000408872550000015 -0.124586999999994 -5.8360316255694e-07
1275 0.000402630937500015 -0.125077499999994 -5.8360316255694e-07
1280 0.000396364800000016 -0.125567999999994 -5.8360316255694e-07
1285 0.000390074137500016 -0.126058499999994 -5.8360316255694e-07
1290 0.000383758950000016 -0.126548999999994 -5.8360316255694e-07
1295 0.000377419237500017 -0.127039499999994 -5.8360316255694e-07
1300 0.000371055000000017 -0.127529999999994 -5.8360316255694e-07
1305 0.000364666237500017 -0.128020499999994 -5.8360316255694e-07
1310 0.000358252950000018 -0.128510999999994 -5.8360316255694e-07
1315 0.000351815137500018 -0.129001499999994 -5.8360316255694e-07
1320 0.000345352800000018 -0.129491999999994 -5.8360316255694e-07
1325 0.000338865937500018 -0.129982499999994 -5.8360316255694e-07
1330 0.000332354550000019 -0.130472999999994 -5.8360316255694e-07
1335 0.000325818637500019 -0.130963499999994 -5.8360316255694e-07
1340 0.000319258200000019 -0.131453999999994 -5.8360316255694e-07
1345 0.00031267323750002 -0.131944499999994 -5.8360316255694e-07
1350 0.00030606375000002 -0.132434999999994 -5.8360316255694e-07
1355 0.00029942973750002 -0.132925499999993 -5.8360316255694e-07
1360 0.000292771200000021 -0.133415999999993 -5.8360316255694e-07
1365 0.000286088137500021 -0.133906499999993 -5.8360316255694e-07
1370 0.000279380550000021 -0.134396999999993 -5.8360316255694e-07
1375 0.000272648437500022 -0.134887499999993 -5.8360316255694e-07
1380 0.000265891800000022 -0.135377999999993 -5.8360316255694e-07
1385 0.000259110637500022 -0.135868499999993 -5.8360316255694e-07
1390 0.000252304950000023 -0.136358999999993 -5.8360316255694e-07
1395 0.000245474737500023 -0.136849499999993 -5.8360316255694e-07
1400 0.000238620000000023 -0.137339999999993 -5.8360316255694e-07
1405 0.000231740737500024 -0.137830499999993 -5.8360316255694e-07
1410 0.000224836950000024 -0.138320999999993 -5.8360316255694e-07
1415 0.000217908637500024 -0.138811499999993 -5.8360316255694e-07
1420 0.000210955800000025 -0.139301999999993 -5.8360316255694e-07
1425 0.000203978437500025 -0.139792499999993 -5.8360316255694e-07
1430 0.000196976550000026 -0.140282999999993 -5.8360316255694e-07
1435 0.000189950137500026 -0.140773499999993 -5.8360316255694e-07
1440 0.000182899200000026 -0.141263999999993 -5.8360316255694e-07
1445 0.000175823737500027 -0.141754499999993 -5.8360316255694e-07
1450 0.000168760021348687 -0.139224301725893 9.38284535281707e-06
1455 0.000162119665921894 -0.123412372359731 2.89731321977175e-05
1460 0.000156699901137893 -0.090263615975752 4.94712193457906e-05
1465 0.000153338286546473 -0.0420112864399419 6.38785758303102e-05
1470 0.000152622734117588 0.0138786939390693 6.70988832917412e-05
1475 0.000154684540800586 0.0672050188586227 5.79635438475568e-05
1480 0.000159151136377922 0.108692337610529 3.97589113960999e-05
1485 0.00016527913931029 0.133242515511727 1.87950170225005e-05
1490 0.000172212095060917 0.141577615698189 2.39273802133591e-06
1495 0.000179298115626818 0.141509634707234 -5.8360316255694e-07
1500 0.00018636133486218 0.141019134707234 -5.8360316255694e-07
1505 0.000193400029097541 0.140528634707234 -5.8360316255694e-07
1510 0.000200414198332903 0.140038134707234 -5.8360316255694e-07
1515 0.000207403842568265 0.139547634707234 -5.8360316255694e-07
1520 0.000214368961803626 0.139057134707234 -5.8360316255694e-07
1525 0.000221309556038988 0.138566634707234 -5.8360316255694e-07
1530 0.00022822562527435 0.138076134707234 -5.8360316255694e-07
1535 0.000235117169509711 0.137585634707234 -5.8360316255694e-07
1540 0.000241984188745073 0.137095134707234 -5.8360316255694e-07
1545 0.000248826682980435 0.136604634707234 -5.8360316255694e-07
1550 0.000255644652215797 0.136114134707234 -5.8360316255694e-07
1555 0.000262438096451158 0.135623634707235 -5.8360316255694e-07
1560 0.00026920701568652 0.135133134707235 -5.8360316255694e-07
1565 0.000275951409921882 0.134642634707235 -5.8360316255694e-07
1570 0.000282671279157244 0.134152134707235 -5.8360316255694e-07
1575 0.000289366623392605 0.133661634707235 -5.8360316255694e-07
1580 0.000296037442627967 0.133171134707235 -5.8360316255694e-07
1585 0.000302683736863329 0.132680634707235 -5.8360316255694e-07
1590 0.000309305506098691 0.132190134707235 -5.8360316255694e-07
1595 0.000315902750334052 0.131699634707235 -5.8360316255694e-07
1600 0.000322475469569414 0.131209134707235 -5.8360316255694e-07
1605 0.000329023663804776 0.130718634707235 -5.8360316255694e-07
1610 0.000335547333040138 0.130228134707235 -5.8360316255694e-07
1615 0.000342046477275499 0.129737634707235 -5.8360316255694e-07
1620 0.000348521096510861 0.129247134707235 -5.8360316255694e-07
1625 0.000354971190746223 0.128756634707235 -5.8360316255694e-07
1630 0.000361396759981585 0.128266134707235 -5.8360316255694e-07
1635 0.000367797804216946 0.127775634707235 -5.8360316255694e-07
1640 0.000374174323452308 0.127285134707235 -5.8360316255694e-07
1645 0.00038052631768767 0.126794634707235 -5.8360316255694e-07
1650 0.000386853786923032 0.126304134707235 -5.8360316255694e-07
1655 0.000393156731158393 0.125813634707236 -5.8360316255694e-07
1660 0.000399435150393755 0.125323134707236 -5.8360316255694e-07
1665 0.000405689044629117 0.124832634707236 -5.8360316255694e-07
1670 0.000411918413864479 0.124342134707236 -5.8360316255694e-07
1675 0.00041812325809984 0.123851634707236 -5.8360316255694e-07
1680 0.000424303577335202 0.123361134707236 -5.8360316255694e-07
1685 0.000430459371570564 0.122870634707236 -5.8360316255694e-07
1690 0.000436590640805926 0.122380134707236 -5.8360316255694e-07
1695 0.000442697385041288 0.121889634707236 -5.8360316255694e-07
1700 0.000448779604276649 0.121399134707236 -5.8360316255694e-07
1705 0.000454837298512011 0.120908634707236 -5.8360316255694e-07
1710 0.000460870467747373 0.120418134707236 -5.8360316255694e-07
1715 0.000466879111982735 0.119927634707236 -5.8360316255694e-07
1720 0.000472863231218097 0.119437134707236 -5.8360316255694e-07
1725 0.000478822825453458 0.118946634707236 -5.8360316255694e-07
1730 0.00048475789468882 0.118456134707236 -5.8360316255694e-07
1735 0.000490668438924182 0.117965634707236 -5.8360316255694e-07
1740 0.000496554458159544 0.117475134707236 -5.8360316255694e-07
1745 0.000502415952394906 0.116984634707236 -5.8360316255694e-07
1750 0.000508252921630267 0.116494134707236 -5.8360316255694e-07
1755 0.000514065365865629 0.116003634707237 -5.8360316255694e-07
1760 0.000519853285100991 0.115513134707237 -5.8360316255694e-07
1765 0.000525616679336353 0.115022634707237 -5.8360316255694e-07
1770 0.000531355548571715 0.114532134707237 -5.8360316255694e-07
1775 0.000537069892807077 0.114041634707237 -5.8360316255694e-07
1780 0.000542759712042438 0.113551134707237 -5.8360316255694e-07
1785 0.0005484250062778 0.113060634707237 -5.8360316255694e-07
1790 0.000554065775513162 0.112570134707237 -5.8360316255694e-07
1795 0.000559682019748524 0.112079634707237 -5.8360316255694e-07
1800 0.000565273738983886 0.111589134707237 -5.8360316255694e-07
1805 0.000570840933219248 0.111098634707237 -5.8360316255694e-07
1810 0.00057638360245461 0.110608134707237 -5.8360316255694e-07
1815 0.000581901746689971 0.110117634707237 -5.8360316255694e-07
1820 0.000587395365925333 0.109627134707237 -5.8360316255694e-07
1825 0.000592864460160695 0.109136634707237 -5.8360316255694e-07
1830 0.000598309029396057 0.108646134707237 -5.8360316255694e-07
1835 0.000603729073631419 0.108155634707237 -5.8360316255694e-07
1840 0.000609124592866781 0.107665134707237 -5.8360316255694e-07
1845 0.000614495587102143 0.107174634707237 -5.8360316255694e-07
1850 0.000619842056337505 0.106684134707238 -5.8360316255694e-07
1855 0.000625164000572867 0.106193634707238 -5.8360316255694e-07
1860 0.000630461419808228 0.105703134707238 -5.8360316255694e-07
1865 0.00063573431404359 0.105212634707238 -5.8360316255694e-07
1870 0.000640982683278952 0.104722134707238 -5.8360316255694e-07
1875 0.000646206527514314 0.104231634707238 -5.8360316255694e-07
1880 0.000651405846749676 0.103741134707238 -5.8360316255694e-07
1885 0.000656580640985038 0.103250634707238 -5.8360316255694e-07
1890 0.0006617309102204 0.102760134707238 -5.8360316255694e-07
1895 0.000666856654455762 0.102269634707238 -5.8360316255694e-07
1900 0.000671957873691124 0.101779134707238 -5.8360316255694e-07
1905 0.000677034567926486 0.101288634707238 -5.8360316255694e-07
1910 0.000682086737161847 0.100798134707238 -5.8360316255694e-07
1915 0.000687114381397209 0.100307634707238 -5.8360316255694e-07
1920 0.000692117500632571 0.0998171347072382 -5.8360316255694e-07
1925 0.000697096094867933 0.0993266347072383 -5.8360316255694e-07
1930 0.000702050164103295 0.0988361347072383 -5.8360316255694e-07
1935 0.000706979708338657 0.0983456347072384 -5.8360316255694e-07
1940 0.000711884727574019 0.0978551347072384 -5.8360316255694e-07
1945 0.000716765221809381 0.0973646347072385 -5.8360316255694e-07
1950 0.000721621191044743 0.0968741347072385 -5.8360316255694e-07
1955 0.000726452635280105 0.0963836347072386 -5.8360316255694e-07
1960 0.000731259554515467 0.0958931347072386 -5.8360316255694e-07
1965 0.000736041948750829 0.0954026347072387 -5.8360316255694e-07
1970 0.00074079981798619 0.0949121347072387 -5.8360316255694e-07
1975 0.000745533162221552 0.0944216347072388 -5.8360316255694e-07
1980 0.000750241981456914 0.0939311347072388 -5.8360316255694e-07
1985 0.000754926275692276 0.0934406347072389 -5.8360316255694e-07
1990 0.000759586044927638 0.0929501347072389 -5.8360316255694e-07
1995 0.000764221289163 0.092459634707239 -5.8360316255694e-07
2000 0.000768832008398362 0.091969134707239 -5.8360316255694e-07
2005 0.000773418202633724 0.0914786347072391 -5.8360316255694e-07
2010 0.000777979871869086 0.0909881347072391 -5.8360316255694e-07
2015 0.000782517016104448 0.0904976347072392 -5.8360316255694e-07
2020 0.00078702963533981 0.0900071347072392 -5.8360316255694e-07
2025 0.000791517729575172 0.0895166347072393 -5.8360316255694e-07
2030 0.000795981298810534 0.0890261347072393 -5.8360316255694e-07
2035 0.000800420343045896 0.0885356347072394 -5.8360316255694e-07
2040 0.000804834862281258 0.0880451347072394 -5.8360316255694e-07
2045 0.00080922485651662 0.0875546347072395 -5.8360316255694e-07
2050 0.000813590325751982 0.0870641347072395 -5.8360316255694e-07
2055 0.000817931269987344 0.0865736347072396 -5.8360316255694e-07
2060 0.000822247689222706 0.0860831347072396 -5.8360316255694e-07
2065 0.000826539583458068 0.0855926347072397 -5.8360316255694e-07
2070 0.000830806952693429 0.0851021347072397 -5.8360316255694e-07
2075 0.000835049796928791 0.0846116347072398 -5.8360316255694e-07
2080 0.000839268116164153 0.0841211347072398 -5.8360316255694e-07
2085 0.000843461910399515 0.0836306347072399 -5.8360316255694e-07
2090 0.000847631179634877 0.0831401347072399 -5.8360316255694e-07
2095 0.000851775923870239 0.08264963470724 -5.8360316255694e-07
2100 0.000855896143105601 0.08215913470724 -5.8360316255694e-07
2105 0.000859991837340963 0.0816686347072401 -5.8360316255694e-07
2110 0.000864063006576325 0.0811781347072401 -5.8360316255694e-07
2115 0.000868109650811687 0.0806876347072402 -5.8360316255694e-07
2120 0.00087213177004705 0.0801971347072402 -5.8360316255694e-07
2125 0.000876129364282412 0.0797066347072403 -5.8360316255694e-07
2130 0.000880102433517774 0.0792161347072403 -5.8360316255694e-07
2135 0.000884050977753136 0.0787256347072404 -5.8360316255694e-07
2140 0.000887974996988498 0.0782351347072404 -5.8360316255694e-07
2145 0.00089187449122386 0.0777446347072405 -5.8360316255694e-07
2150 0.000895749460459222 0.0772541347072405 -5.8360316255694e-07
2155 0.000899599904694584 0.0767636347072406 -5.8360316255694e-07
2160 0.000903425823929946 0.0762731347072406 -5.8360316255694e-07
2165 0.000907227218165308 0.0757826347072407 -5.8360316255694e-07
2170 0.00091100408740067 0.0752921347072407 -5.8360316255694e-07
2175 0.000914756431636032 0.0748016347072408 -5.8360316255694e-07
2180 0.000918484250871394 0.0743111347072409 -5.8360316255694e-07
2185 0.000922187545106756 0.0738206347072409 -5.8360316255694e-07
2190 0.000925866314342118 0.073330134707241 -5.8360316255694e-07
2195 0.00092952055857748 0.072839634707241 -5.8360316255694e-07
2200 0.000933150277812842 0.0723491347072411 -5.8360316255694e-07
2205 0.000936755472048204 0.0718586347072411 -5.8360316255694e-07
2210 0.000940336141283566 0.0713681347072412 -5.8360316255694e-07
2215 0.000943892285518928 0.0708776347072412 -5.8360316255694e-07
2220 0.00094742390475429 0.0703871347072413 -5.8360316255694e-07
2225 0.000950930998989653 0.0698966347072413 -5.8360316255694e-07
2230 0.000954413568225015 0.0694061347072414 -5.8360316255694e-07
2235 0.000957871612460377 0.0689156347072414 -5.8360316255694e-07
2240 0.000961305131695739 0.0684251347072415 -5.8360316255694e-07
2245 0.000964714125931101 0.0679346347072415 -5.8360316255694e-07
2250 0.000968098595166463 0.0674441347072416 -5.8360316255694e-07
2255 0.000971458539401825 0.0669536347072416 -5.8360316255694e-07
2260 0.000974793958637187 0.0664631347072417 -5.8360316255694e-07
2265 0.000978104852872549 0.0659726347072417 -5.8360316255694e-07
2270 0.000981391222107911 0.0654821347072418 -5.8360316255694e-07
2275 0.000984653066343273 0.0649916347072418 -5.8360316255694e-07
2280 0.000987890385578635 0.0645011347072419 -5.8360316255694e-07
2285 0.000991103179813998 0.0640106347072419 -5.8360316255694e-07
2290 0.00099429144904936 0.063520134707242 -5.8360316255694e-07
2295 0.000997455193284722 0.063029634707242 -5.8360316255694e-07
2300 0.00100059441252008 0.0625391347072421 -5.8360316255694e-07
2305 0.00100370910675545 0.062048634707242 -5.8360316255694e-07
2310 0.00100679927599081 0.061558134707242 -5.8360316255694e-07
2315 0.00100986492022617 0.061067634707242 -5.8360316255694e-07
2320 0.00101290603946153 0.060577134707242 -5.8360316255694e-07
2325 0.00101592263369689 0.060086634707242 -5.8360316255694e-07
2330 0.00101891470293226 0.059596134707242 -5.8360316255694e-07
2335 0.00102188224716762 0.0591056347072419 -5.8360316255694e-07
2340 0.00102482526640298 0.0586151347072419 -5.8360316255694e-07
2345 0.00102774376063834 0.0581246347072419 -5.8360316255694e-07
2350 0.00103063772987371 0.0576341347072419 -5.8360316255694e-07
2355 0.00103350717410907 0.0571436347072419 -5.8360316255694e-07
2360 0.00103635209334443 0.0566531347072418 -5.8360316255694e-07
2365 0.00103917248757979 0.0561626347072418 -5.8360316255694e-07
2370 0.00104196835681515 0.0556721347072418 -5.8360316255694e-07
2375 0.00104473970105052 0.0551816347072418 -5.8360316255694e-07
2380 0.00104748652028588 0.0546911347072418 -5.8360316255694e-07
2385 0.00105020881452124 0.0542006347072417 -5.8360316255694e-07
2390 0.0010529065837566 0.0537101347072417 -5.8360316255694e-07
2395 0.00105557982799196 0.0532196347072417 -5.8360316255694e-07
2400 0.00105822854722733 0.0527291347072417 -5.8360316255694e-07
2405 0.00106085274146269 0.0522386347072417 -5.8360316255694e-07
2410 0.00106345241069805 0.0517481347072417 -5.8360316255694e-07
2415 0.00106602755493341 0.0512576347072416 -5.8360316255694e-07
2420 0.00106857817416877 0.0507671347072416 -5.8360316255694e-07
2425 0.00107110426840414 0.0502766347072416 -5.8360316255694e-07
2430 0.0010736058376395 0.0497861347072416 -5.8360316255694e-07
2435 0.00107608288187486 0.0492956347072416 -5.8360316255694e-07
2440 0.00107853540111022 0.0488051347072415 -5.8360316255694e-07
2445 0.00108096339534558 0.0483146347072415 -5.8360316255694e-07
2450 0.00108336686458095 0.0478241347072415 -5.8360316255694e-07
2455 0.00108574580881631 0.0473336347072415 -5.8360316255694e-07
2460 0.00108810022805167 0.0468431347072415 -5.8360316255694e-07
2465 0.00109043012228703 0.0463526347072414 -5.8360316255694e-07
2470 0.00109273549152239 0.0458621347072414 -5.8360316255694e-07
2475 0.00109501633575776 0.0453716347072414 -5.8360316255694e-07
2480 0.00109727265499312 0.0448811347072414 -5.8360316255694e-07
2485 0.00109950444922848 0.0443906347072414 -5.8360316255694e-07
2490 0.00110171171846384 0.0439001347072414 -5.8360316255694e-07
2495 0.00110389446269921 0.0434096347072413 -5.8360316255694e-07
2500 0.00110605268193457 0.0429191347072413 -5.8360316255694e-07
2505 0.00110818637616993 0.0424286347072413 -5.8360316255694e-07
2510 0.00111029554540529 0.0419381347072413 -5.8360316255694e-07
2515 0.00111238018964065 0.0414476347072413 -5.8360316255694e-07
2520 0.00111444030887602 0.0409571347072412 -5.8360316255694e-07
2525 0.00111647590311138 0.0404666347072412 -5.8360316255694e-07
2530 0.00111848697234674 0.0399761347072412 -5.8360316255694e-07
2535 0.0011204735165821 0.0394856347072412 -5.8360316255694e-07
2540 0.00112243553581746 0.0389951347072412 -5.8360316255694e-07
2545 0.00112437303005283 0.0385046347072412 -5.8360316255694e-07
2550 0.00112628599928819 0.0380141347072411 -5.8360316255694e-07
2555 0.00112817444352355 0.0375236347072411 -5.8360316255694e-07
2560 0.00113003836275891 0.0370331347072411 -5.8360316255694e-07
2565 0.00113187775699427 0.0365426347072411 -5.8360316255694e-07
2570 0.00113369262622964 0.0360521347072411 -5.8360316255694e-07
2575 0.001135482970465 0.035561634707241 -5.8360316255694e-07
2580 0.00113724878970036 0.035071134707241 -5.8360316255694e-07
2585 0.00113899008393572 0.034580634707241 -5.8360316255694e-07
2590 0.00114070685317108 0.034090134707241 -5.8360316255694e-07
2595 0.00114239909740645 0.033599634707241 -5.8360316255694e-07
2600 0.00114406681664181 0.0331091347072409 -5.8360316255694e-07
2605 0.00114571001087717 0.0326186347072409 -5.8360316255694e-07
2610 0.00114732868011253 0.0321281347072409 -5.8360316255694e-07
2615 0.00114892282434789 0.0316376347072409 -5.8360316255694e-07
2620 0.00115049244358326 0.0311471347072409 -5.8360316255694e-07
2625 0.00115203753781862 0.0306566347072409 -5.8360316255694e-07
2630 0.00115355810705398 0.0301661347072409 -5.8360316255694e-07
2635 0.00115505415128934 0.0296756347072409 -5.8360316255694e-07
2640 0.0011565256705247 0.0291851347072409 -5.8360316255694e-07
2645 0.00115797266476007 0.028694634707241 -5.8360316255694e-07
2650 0.00115939513399543 0.028204134707241 -5.8360316255694e-07
2655 0.00116079307823079 0.027713634707241 -5.8360316255694e-07
2660 0.00116216649746615 0.027223134707241 -5.8360316255694e-07
2665 0.00116351539170151 0.026732634707241 -5.8360316255694e-07
2670 0.00116483976093688 0.026242134707241 -5.8360316255694e-07
2675 0.00116613960517224 0.0257516347072411 -5.8360316255694e-07
2680 0.0011674149244076 0.0252611347072411 -5.8360316255694e-07
2685 0.00116866571864296 0.0247706347072411 -5.8360316255694e-07
2690 0.00116989198787833 0.0242801347072411 -5.8360316255694e-07
2695 0.00117109373211369 0.0237896347072411 -5.8360316255694e-07
2700 0.00117227095134905 0.0232991347072411 -5.8360316255694e-07
2705 0.00117342364558441 0.0228086347072412 -5.8360316255694e-07
2710 0.00117455181481977 0.0223181347072412 -5.8360316255694e-07
2715 0.00117565545905514 0.0218276347072412 -5.8360316255694e-07
2720 0.0011767345782905 0.0213371347072412 -5.8360316255694e-07
2725 0.00117778917252586 0.0208466347072412 -5.8360316255694e-07
2730 0.00117881924176122 0.0203561347072412 -5.8360316255694e-07
2735 0.00117982478599658 0.0198656347072412 -5.8360316255694e-07
2740 0.00118080580523195 0.0193751347072413 -5.8360316255694e-07
2745 0.00118176229946731 0.0188846347072413 -5.8360316255694e-07
2750 0.00118269426870267 0.0183941347072413 -5.8360316255694e-07
2755 0.00118360171293803 0.0179036347072413 -5.8360316255694e-07
2760 0.00118448463217339 0.0174131347072413 -5.8360316255694e-07
2765 0.00118534302640876 0.0169226347072413 -5.8360316255694e-07
2770 0.00118617689564412 0.0164321347072414 -5.8360316255694e-07
2775 0.00118698623987948 0.0159416347072414 -5.8360316255694e-07
2780 0.00118777105911484 0.0154511347072414 -5.8360316255694e-07
2785 0.00118853135335021 0.0149606347072414 -5.8360316255694e-07
2790 0.00118926712258557 0.0144701347072414 -5.8360316255694e-07
2795 0.00118997836682093 0.0139796347072414 -5.8360316255694e-07
2800 0.00119066508605629 0.0134891347072414 -5.8360316255694e-07
2805 0.00119132728029165 0.0129986347072414 -5.8360316255694e-07
2810 0.00119196494952702 0.0125081347072414 -5.8360316255694e-07
2815 0.00119257809376238 0.0120176347072414 -5.8360316255694e-07
2820 0.00119316671299774 0.0115271347072414 -5.8360316255694e-07
2825 0.0011937308072331 0.0110366347072414 -5.8360316255694e-07
2830 0.00119427037646846 0.0105461347072414 -5.8360316255694e-07
2835 0.00119478542070383 0.0100556347072414 -5.8360316255694e-07
2840 0.00119527593993919 0.00956513470724137 -5.8360316255694e-07
2845 0.00119574193417455 0.00907463470724137 -5.8360316255694e-07
2850 0.00119618340340991 0.00858413470724137 -5.8360316255694e-07
2855 0.00119660034764527 0.00809363470724137 -5.8360316255694e-07
2860 0.00119699276688064 0.00760313470724136 -5.8360316255694e-07
2865 0.001197360661116 0.00711263470724136 -5.8360316255694e-07
2870 0.00119770403035136 0.00662213470724136 -5.8360316255694e-07
2875 0.00119802287458672 0.00613163470724136 -5.8360316255694e-07
2880 0.00119831719382208 0.00564113470724136 -5.8360316255694e-07
2885 0.00119858698805745 0.00515063470724136 -5.8360316255694e-07
2890 0.00119883225729281 0.00466013470724136 -5.8360316255694e-07
2895 0.00119905300152817 0.00416963470724135 -5.8360316255694e-07
2900 0.00119924922076353 0.00367913470724135 -5.8360316255694e-07
2905 0.00119942091499889 0.00318863470724135 -5.8360316255694e-07
2910 0.00119956808423426 0.00269813470724135 -5.8360316255694e-07
2915 0.00119969072846962 0.00220763470724135 -5.8360316255694e-07
2920 0.00119978884770498 0.00171713470724135 -5.8360316255694e-07
2925 0.00119986244194034 0.00122663470724135 -5.8360316255694e-07
2930 0.0011999115111757 0.00073613470724135 -5.8360316255694e-07
2935 0.00119993605541107 0.000245634707241349 -5.8360316255694e-07
2940 0.00119993607464643 -0.000244865292758651 -5.8360316255694e-07
2945 0.00119991156888179 -0.000735365292758651 -5.8360316255694e-07
2950 0.00119986253811715 -0.00122586529275865 -5.8360316255694e-07
2955 0.00119978898235252 -0.00171636529275865 -5.8360316255694e-07
2960 0.00119969090158788 -0.00220686529275865 -5.8360316255694e-07
2965 0.00119956829582324 -0.00269736529275865 -5.8360316255694e-07
2970 0.0011994211650586 -0.00318786529275865 -5.8360316255694e-07
2975 0.00119924950929396 -0.00367836529275865 -5.8360316255694e-07
2980 0.00119905332852933 -0.00416886529275866 -5.8360316255694e-07
2985 0.00119883262276469 -0.00465936529275866 -5.8360316255694e-07
2990 0.00119858739200005 -0.00514986529275866 -5.8360316255694e-07
2995 0.00119831763623541 -0.00564036529275866 -5.8360316255694e-07
3000 0.00119802335547077 -0.00613086529275866 -5.8360316255694e-07
3005 0.00119770454970614 -0.00662136529275866 -5.8360316255694e-07
3010 0.0011973612189415 -0.00711186529275866 -5.8360316255694e-07
3015 0.00119699336317686 -0.00760236529275867 -5.8360316255694e-07
3020 0.00119660098241222 -0.00809286529275867 -5.8360316255694e-07
3025 0.00119618407664758 -0.00858336529275867 -5.8360316255694e-07
3030 0.00119574264588295 -0.00907386529275867 -5.8360316255694e-07
3035 0.00119527669011831 -0.00956436529275867 -5.8360316255694e-07
3040 0.00119478620935367 -0.0100548652927587 -5.8360316255694e-07
3045 0.00119427120358903 -0.0105453652927587 -5.8360316255694e-07
3050 0.00119373167282439 -0.0110358652927587 -5.8360316255694e-07
3055 0.00119316761705976 -0.0115263652927587 -5.8360316255694e-07
3060 0.00119257903629512 -0.0120168652927587 -5.8360316255694e-07
3065 0.00119196593053048 -0.0125073652927587 -5.8360316255694e-07
3070 0.00119132829976584 -0.0129978652927587 -5.8360316255694e-07
3075 0.0011906661440012 -0.0134883652927587 -5.8360316255694e-07
3080 0.00118997946323657 -0.0139788652927587 -5.8360316255694e-07
3085 0.00118926825747193 -0.0144693652927587 -5.8360316255694e-07
3090 0.00118853252670729 -0.0149598652927587 -5.8360316255694e-07
3095 0.00118777227094265 -0.0154503652927587 -5.8360316255694e-07
3100 0.00118698749017802 -0.0159408652927587 -5.8360316255694e-07
3105 0.00118617818441338 -0.0164313652927587 -5.8360316255694e-07
3110 0.00118534435364874 -0.0169218652927586 -5.8360316255694e-07
3115 0.0011844859978841 -0.0174123652927586 -5.8360316255694e-07
3120 0.00118360311711946 -0.0179028652927586 -5.8360316255694e-07
3125 0.00118269571135483 -0.0183933652927586 -5.8360316255694e-07
3130 0.00118176378059019 -0.0188838652927586 -5.8360316255694e-07
3135 0.00118080732482555 -0.0193743652927586 -5.8360316255694e-07
3140 0.00117982634406091 -0.0198648652927585 -5.8360316255694e-07
3145 0.00117882083829627 -0.0203553652927585 -5.8360316255694e-07
3150 0.00117779080753164 -0.0208458652927585 -5.8360316255694e-07
3155 0.001176736251767 -0.0213363652927585 -5.8360316255694e-07
3160 0.00117565717100236 -0.0218268652927585 -5.8360316255694e-07
3165 0.00117455356523772 -0.0223173652927585 -5.8360316255694e-07
3170 0.00117342543447308 -0.0228078652927585 -5.8360316255694e-07
3175 0.00117227277870845 -0.0232983652927584 -5.8360316255694e-07
3180 0.00117109559794381 -0.0237888652927584 -5.8360316255694e-07
3185 0.00116989389217917 -0.0242793652927584 -5.8360316255694e-07
3190 0.00116866766141453 -0.0247698652927584 -5.8360316255694e-07
3195 0.00116741690564989 -0.0252603652927584 -5.8360316255694e-07
3200 0.00116614162488526 -0.0257508652927584 -5.8360316255694e-07
3205 0.00116484181912062 -0.0262413652927583 -5.8360316255694e-07
3210 0.00116351748835598 -0.0267318652927583 -5.8360316255694e-07
3215 0.00116216863259134 -0.0272223652927583 -5.8360316255694e-07
3220 0.0011607952518267 -0.0277128652927583 -5.8360316255694e-07
3225 0.00115939734606207 -0.0282033652927583 -5.8360316255694e-07
3230 0.00115797491529743 -0.0286938652927583 -5.8360316255694e-07
3235 0.00115652795953279 -0.0291843652927582 -5.8360316255694e-07
3240 0.00115505647876815 -0.0296748652927582 -5.8360316255694e-07
3245 0.00115356047300352 -0.0301653652927582 -5.8360316255694e-07
3250 0.00115203994223888 -0.0306558652927582 -5.8360316255694e-07
3255 0.00115049488647424 -0.0311463652927582 -5.8360316255694e-07
3260 0.0011489253057096 -0.0316368652927582 -5.8360316255694e-07
3265 0.00114733119994496 -0.0321273652927582 -5.8360316255694e-07
3270 0.00114571256918033 -0.0326178652927582 -5.8360316255694e-07
3275 0.00114406941341569 -0.0331083652927582 -5.8360316255694e-07
3280 0.00114240173265105 -0.0335988652927583 -5.8360316255694e-07
3285 0.00114070952688641 -0.0340893652927583 -5.8360316255694e-07
3290 0.00113899279612177 -0.0345798652927583 -5.8360316255694e-07
3295 0.00113725154035714 -0.0350703652927583 -5.8360316255694e-07
3300 0.0011354857595925 -0.0355608652927583 -5.8360316255694e-07
3305 0.00113369545382786 -0.0360513652927584 -5.8360316255694e-07
3310 0.00113188062306322 -0.0365418652927584 -5.8360316255694e-07
3315 0.00113004126729858 -0.0370323652927584 -5.8360316255694e-07
3320 0.00112817738653395 -0.0375228652927584 -5.8360316255694e-07
3325 0.00112628898076931 -0.0380133652927584 -5.8360316255694e-07
3330 0.00112437605000467 -0.0385038652927585 -5.8360316255694e-07
3335 0.00112243859424003 -0.0389943652927585 -5.8360316255694e-07
3340 0.00112047661347539 -0.0394848652927585 -5.8360316255694e-07
3345 0.00111849010771076 -0.0399753652927585 -5.8360316255694e-07
3350 0.00111647907694612 -0.0404658652927585 -5.8360316255694e-07
3355 0.00111444352118148 -0.0409563652927585 -5.8360316255694e-07
3360 0.00111238344041684 -0.0414468652927586 -5.8360316255694e-07
3365 0.00111029883465221 -0.0419373652927586 -5.8360316255694e-07
3370 0.00110818970388757 -0.0424278652927586 -5.8360316255694e-07
3375 0.00110605604812293 -0.0429183652927586 -5.8360316255694e-07
3380 0.00110389786735829 -0.0434088652927586 -5.8360316255694e-07
3385 0.00110171516159365 -0.0438993652927587 -5.8360316255694e-07
3390 0.00109950793082902 -0.0443898652927587 -5.8360316255694e-07
3395 0.00109727617506438 -0.0448803652927587 -5.8360316255694e-07
3400 0.00109501989429974 -0.0453708652927587 -5.8360316255694e-07
3405 0.0010927390885351 -0.0458613652927587 -5.8360316255694e-07
3410 0.00109043375777046 -0.0463518652927588 -5.8360316255694e-07
3415 0.00108810390200583 -0.0468423652927588 -5.8360316255694e-07
3420 0.00108574952124119 -0.0473328652927588 -5.8360316255694e-07
3425 0.00108337061547655 -0.0478233652927588 -5.8360316255694e-07
3430 0.00108096718471191 -0.0483138652927588 -5.8360316255694e-07
3435 0.00107853922894727 -0.0488043652927588 -5.8360316255694e-07
3440 0.00107608674818264 -0.0492948652927589 -5.8360316255694e-07
3445 0.001073609742418 -0.0497853652927589 -5.8360316255694e-07
3450 0.00107110821165336 -0.0502758652927589 -5.8360316255694e-07
3455 0.00106858215588872 -0.0507663652927589 -5.8360316255694e-07
3460 0.00106603157512408 -0.0512568652927589 -5.8360316255694e-07
3465 0.00106345646935945 -0.051747365292759 -5.8360316255694e-07
3470 0.00106085683859481 -0.052237865292759 -5.8360316255694e-07
3475 0.00105823268283017 -0.052728365292759 -5.8360316255694e-07
3480 0.00105558400206553 -0.053218865292759 -5.8360316255694e-07
3485 0.00105291079630089 -0.053709365292759 -5.8360316255694e-07
3490 0.00105021306553626 -0.0541998652927591 -5.8360316255694e-07
3495 0.00104749080977162 -0.0546903652927591 -5.8360316255694e-07
3500 0.00104474402900698 -0.0551808652927591 -5.8360316255694e-07
3505 0.00104197272324234 -0.0556713652927591 -5.8360316255694e-07
3510 0.0010391768924777 -0.0561618652927591 -5.8360316255694e-07
3515 0.00103635653671307 -0.0566523652927591 -5.8360316255694e-07
3520 0.00103351165594843 -0.0571428652927592 -5.8360316255694e-07
3525 0.00103064225018379 -0.0576333652927592 -5.8360316255694e-07
3530 0.00102774831941915 -0.0581238652927592 -5.8360316255694e-07
3535 0.00102482986365452 -0.0586143652927592 -5.8360316255694e-07
3540 0.00102188688288988 -0.0591048652927592 -5.8360316255694e-07
3545 0.00101891937712524 -0.0595953652927593 -5.8360316255694e-07
3550 0.0010159273463606 -0.0600858652927593 -5.8360316255694e-07
3555 0.00101291079059596 -0.0605763652927593 -5.8360316255694e-07
3560 0.00100986970983133 -0.0610668652927593 -5.8360316255694e-07
3565 0.00100680410406669 -0.0615573652927593 -5.8360316255694e-07
3570 0.00100371397330205 -0.0620478652927594 -5.8360316255694e-07
3575 0.00100059931753741 -0.0625383652927594 -5.8360316255694e-07
3580 0.000997460136772774 -0.0630288652927593 -5.8360316255694e-07
3585 0.000994296431008136 -0.0635193652927593 -5.8360316255694e-07
3590 0.000991108200243498 -0.0640098652927592 -5.8360316255694e-07
3595 0.00098789544447886 -0.0645003652927592 -5.8360316255694e-07
3600 0.000984658163714222 -0.0649908652927591 -5.8360316255694e-07
3605 0.000981396357949585 -0.0654813652927591 -5.8360316255694e-07
3610 0.000978110027184946 -0.065971865292759 -5.8360316255694e-07
3615 0.000974799171420308 -0.066462365292759 -5.8360316255694e-07
3620 0.00097146379065567 -0.0669528652927589 -5.8360316255694e-07
3625 0.000968103884891032 -0.0674433652927589 -5.8360316255694e-07
3630 0.000964719454126394 -0.0679338652927588 -5.8360316255694e-07
3635 0.000961310498361757 -0.0684243652927588 -5.8360316255694e-07
3640 0.000957877017597119 -0.0689148652927587 -5.8360316255694e-07
3645 0.000954419011832481 -0.0694053652927587 -5.8360316255694e-07
3650 0.000950936481067843 -0.0698958652927586 -5.8360316255694e-07
3655 0.000947429425303205 -0.0703863652927586 -5.8360316255694e-07
3660 0.000943897844538567 -0.0708768652927585 -5.8360316255694e-07
3665 0.000940341738773929 -0.0713673652927585 -5.8360316255694e-07
3670 0.000936761108009291 -0.0718578652927584 -5.8360316255694e-07
3675 0.000933155952244653 -0.0723483652927584 -5.8360316255694e-07
3680 0.000929526271480015 -0.0728388652927583 -5.8360316255694e-07
3685 0.000925872065715377 -0.0733293652927583 -5.8360316255694e-07
3690 0.000922193334950739 -0.0738198652927582 -5.8360316255694e-07
3695 0.000918490079186101 -0.0743103652927582 -5.8360316255694e-07
3700 0.000914762298421463 -0.0748008652927581 -5.8360316255694e-07
3705 0.000911009992656826 -0.0752913652927581 -5.8360316255694e-07
3710 0.000907233161892188 -0.075781865292758 -5.8360316255694e-07
3715 0.00090343180612755 -0.076272365292758 -5.8360316255694e-07
3720 0.000899605925362912 -0.0767628652927579 -5.8360316255694e-07
3725 0.000895755519598274 -0.0772533652927579 -5.8360316255694e-07
3730 0.000891880588833636 -0.0777438652927578 -5.8360316255694e-07
3735 0.000887981133068998 -0.0782343652927577 -5.8360316255694e-07
3740 0.00088405715230436 -0.0787248652927577 -5.8360316255694e-07
3745 0.000880108646539722 -0.0792153652927576 -5.8360316255694e-07
3750 0.000876135615775084 -0.0797058652927576 -5.8360316255694e-07
3755 0.000872138060010447 -0.0801963652927575 -5.8360316255694e-07
3760 0.000868115979245809 -0.0806868652927575 -5.8360316255694e-07
3765 0.000864069373481171 -0.0811773652927574 -5.8360316255694e-07
3770 0.000859998242716533 -0.0816678652927574 -5.8360316255694e-07
3775 0.000855902586951895 -0.0821583652927573 -5.8360316255694e-07
3780 0.000851782406187257 -0.0826488652927573 -5.8360316255694e-07
3785 0.000847637700422619 -0.0831393652927572 -5.8360316255694e-07
3790 0.000843468469657982 -0.0836298652927572 -5.8360316255694e-07
3795 0.000839274713893344 -0.0841203652927571 -5.8360316255694e-07
3800 0.000835056433128706 -0.0846108652927571 -5.8360316255694e-07
3805 0.000830813627364068 -0.085101365292757 -5.8360316255694e-07
3810 0.00082654629659943 -0.085591865292757 -5.8360316255694e-07
3815 0.000822254440834792 -0.0860823652927569 -5.8360316255694e-07
3820 0.000817938060070155 -0.0865728652927569 -5.8360316255694e-07
3825 0.000813597154305517 -0.0870633652927568 -5.8360316255694e-07
3830 0.000809231723540879 -0.0875538652927568 -5.8360316255694e-07
3835 0.000804841767776241 -0.0880443652927567 -5.8360316255694e-07
3840 0.000800427287011603 -0.0885348652927567 -5.8360316255694e-07
3845 0.000795988281246965 -0.0890253652927566 -5.8360316255694e-07
3850 0.000791524750482328 -0.0895158652927566 -5.8360316255694e-07
3855 0.00078703669471769 -0.0900063652927565 -5.8360316255694e-07
3860 0.000782524113953052 -0.0904968652927565 -5.8360316255694e-07
3865 0.000777987008188414 -0.0909873652927564 -5.8360316255694e-07
3870 0.000773425377423776 -0.0914778652927564 -5.8360316255694e-07
3875 0.000768839221659139 -0.0919683652927563 -5.8360316255694e-07
3880 0.000764228540894501 -0.0924588652927563 -5.8360316255694e-07
3885 0.000759593335129863 -0.0929493652927562 -5.8360316255694e-07
3890 0.000754933604365225 -0.0934398652927562 -5.8360316255694e-07
3895 0.000750249348600587 -0.0939303652927561 -5.8360316255694e-07
3900 0.000745540567835949 -0.0944208652927561 -5.8360316255694e-07
3905 0.000740807262071312 -0.094911365292756 -5.8360316255694e-07
3910 0.000736049431306674 -0.095401865292756 -5.8360316255694e-07
3915 0.000731267075542036 -0.0958923652927559 -5.8360316255694e-07
3920 0.000726460194777398 -0.0963828652927559 -5.8360316255694e-07
3925 0.00072162878901276 -0.0968733652927558 -5.8360316255694e-07
3930 0.000716772858248123 -0.0973638652927558 -5.8360316255694e-07
3935 0.000711892402483485 -0.0978543652927557 -5.8360316255694e-07
3940 0.000706987421718847 -0.0983448652927557 -5.8360316255694e-07
3945 0.000702057915954209 -0.0988353652927556 -5.8360316255694e-07
3950 0.000697103885189571 -0.0993258652927556 -5.8360316255694e-07
3955 0.000692125329424934 -0.0998163652927555 -5.8360316255694e-07
3960 0.000687122248660296 -0.100306865292755 -5.8360316255694e-07
3965 0.000682094642895658 -0.100797365292755 -5.8360316255694e-07
3970 0.00067704251213102 -0.101287865292755 -5.8360316255694e-07
3975 0.000671965856366382 -0.101778365292755 -5.8360316255694e-07
3980 0.000666864675601745 -0.102268865292755 -5.8360316255694e-07
3985 0.000661738969837107 -0.102759365292755 -5.8360316255694e-07
3990 0.000656588739072469 -0.103249865292755 -5.8360316255694e-07
3995 0.000651413983307831 -0.103740365292755 -5.8360316255694e-07
4000 0.000646214702543194 -0.104230865292755 -5.8360316255694e-07
4005 0.000640990896778556 -0.104721365292755 -5.8360316255694e-07
4010 0.000635742566013918 -0.105211865292755 -5.8360316255694e-07
4015 0.00063046971024928 -0.105702365292755 -5.8360316255694e-07
4020 0.000625172329484643 -0.106192865292755 -5.8360316255694e-07
4025 0.000619850423720005 -0.106683365292755 -5.8360316255694e-07
4030 0.000614503992955367 -0.107173865292755 -5.8360316255694e-07
4035 0.000609133037190729 -0.107664365292755 -5.8360316255694e-07
4040 0.000603737556426092 -0.108154865292755 -5.8360316255694e-07
4045 0.000598317550661454 -0.108645365292755 -5.8360316255694e-07
4050 0.000592873019896816 -0.109135865292755 -5.8360316255694e-07
4055 0.000587403964132179 -0.109626365292755 -5.8360316255694e-07
4060 0.000581910383367541 -0.110116865292754 -5.8360316255694e-07
4065 0.000576392277602903 -0.110607365292754 -5.8360316255694e-07
4070 0.000570849646838265 -0.111097865292754 -5.8360316255694e-07
4075 0.000565282491073628 -0.111588365292754 -5.8360316255694e-07
4080 0.00055969081030899 -0.112078865292754 -5.8360316255694e-07
4085 0.000554074604544352 -0.112569365292754 -5.8360316255694e-07
4090 0.000548433873779715 -0.113059865292754 -5.8360316255694e-07
4095 0.000542768618015077 -0.113550365292754 -5.8360316255694e-07
4100 0.000537078837250439 -0.114040865292754 -5.8360316255694e-07
4105 0.000531364531485802 -0.114531365292754 -5.8360316255694e-07
4110 0.000525625700721164 -0.115021865292754 -5.8360316255694e-07
4115 0.000519862344956526 -0.115512365292754 -5.8360316255694e-07
4120 0.000514074464191888 -0.116002865292754 -5.8360316255694e-07
4125 0.000508262058427251 -0.116493365292754 -5.8360316255694e-07
4130 0.000502425127662613 -0.116983865292754 -5.8360316255694e-07
4135 0.000496563671897976 -0.117474365292754 -5.8360316255694e-07
4140 0.000490677691133338 -0.117964865292754 -5.8360316255694e-07
4145 0.0004847671853687 -0.118455365292754 -5.8360316255694e-07
4150 0.000478832154604063 -0.118945865292754 -5.8360316255694e-07
4155 0.000472872598839425 -0.119436365292753 -5.8360316255694e-07
4160 0.000466888518074787 -0.119926865292753 -5.8360316255694e-07
4165 0.000460879912310149 -0.120417365292753 -5.8360316255694e-07
4170 0.000454846781545512 -0.120907865292753 -5.8360316255694e-07
4175 0.000448789125780874 -0.121398365292753 -5.8360316255694e-07
4180 0.000442706945016237 -0.121888865292753 -5.8360316255694e-07
4185 0.000436600239251599 -0.122379365292753 -5.8360316255694e-07
4190 0.000430469008486961 -0.122869865292753 -5.8360316255694e-07
4195 0.000424313252722324 -0.123360365292753 -5.8360316255694e-07
4200 0.000418132971957686 -0.123850865292753 -5.8360316255694e-07
4205 0.000411928166193048 -0.124341365292753 -5.8360316255694e-07
4210 0.000405698835428411 -0.124831865292753 -5.8360316255694e-07
4215 0.000399444979663773 -0.125322365292753 -5.8360316255694e-07
4220 0.000393166598899135 -0.125812865292753 -5.8360316255694e-07
4225 0.000386863693134498 -0.126303365292753 -5.8360316255694e-07
4230 0.00038053626236986 -0.126793865292753 -5.8360316255694e-07
4235 0.000374184306605222 -0.127284365292753 -5.8360316255694e-07
4240 0.000367807825840585 -0.127774865292753 -5.8360316255694e-07
4245 0.000361406820075947 -0.128265365292753 -5.8360316255694e-07
4250 0.000354981289311309 -0.128755865292753 -5.8360316255694e-07
4255 0.000348531233546672 -0.129246365292752 -5.8360316255694e-07
4260 0.000342056652782034 -0.129736865292752 -5.8360316255694e-07
4265 0.000335557547017397 -0.130227365292752 -5.8360316255694e-07
4270 0.000329033916252759 -0.130717865292752 -5.8360316255694e-07
4275 0.000322485760488121 -0.131208365292752 -5.8360316255694e-07
4280 0.000315913079723484 -0.131698865292752 -5.8360316255694e-07
4285 0.000309315873958846 -0.132189365292752 -5.8360316255694e-07
4290 0.000302694143194208 -0.132679865292752 -5.8360316255694e-07
4295 0.000296047887429571 -0.133170365292752 -5.8360316255694e-07
4300 0.000289377106664933 -0.133660865292752 -5.8360316255694e-07
4305 0.000282681800900296 -0.134151365292752 -5.8360316255694e-07
4310 0.000275961970135658 -0.134641865292752 -5.8360316255694e-07
4315 0.000269217614371021 -0.135132365292752 -5.8360316255694e-07
4320 0.000262448733606383 -0.135622865292752 -5.8360316255694e-07
4325 0.000255655327841745 -0.136113365292752 -5.8360316255694e-07
4330 0.000248837397077108 -0.136603865292752 -5.8360316255694e-07
4335 0.00024199494131247 -0.137094365292752 -5.8360316255694e-07
4340 0.000235127960547833 -0.137584865292752 -5.8360316255694e-07
4345 0.000228236454783195 -0.138075365292752 -5.8360316255694e-07
4350 0.000221320424018557 -0.138565865292752 -5.8360316255694e-07
4355 0.00021437986825392 -0.139056365292751 -5.8360316255694e-07
4360 0.000207414787489282 -0.139546865292751 -5.8360316255694e-07
4365 0.000200425181724645 -0.140037365292751 -5.8360316255694e-07
4370 0.000193411050960007 -0.140527865292751 -5.8360316255694e-07
4375 0.00018637239519537 -0.141018365292751 -5.8360316255694e-07
4380 0.000179309214430732 -0.141508865292751 -5.8360316255694e-07
4385 0.000172223211375998 -0.141580436907642 2.37495426760606e-06
4390 0.000165289625098084 -0.133266944263679 1.87636702161525e-05
4395 0.000159159713428743 -0.108744470057415 3.97261671261859e-05
4400 0.000154689870962467 -0.0672812884138982 5.79405038587887e-05
4405 0.000152623877225013 -0.0139671931330805 6.7093697177953e-05
4410 0.00015333503109535 0.04192684054642 6.38931080157094e-05
4415 0.000156692839628459 0.0901980138390224 4.95001943283625e-05
4420 0.000162109981405656 0.123373716669438 2.90064733145362e-05
4425 0.00016874907632089 0.139211463717432 9.40907882608812e-06
4430 0.000175812582370539 0.141755058612175 -5.8360316255694e-07
4435 0.000182888072801148 0.141264558612175 -5.8360316255694e-07
4440 0.000189939038231757 0.140774058612175 -5.8360316255694e-07
4445 0.000196965478662366 0.140283558612175 -5.8360316255694e-07
4450 0.000203967394092974 0.139793058612175 -5.8360316255694e-07
4455 0.000210944784523583 0.139302558612176 -5.8360316255694e-07
4460 0.000217897649954192 0.138812058612176 -5.8360316255694e-07
4465 0.000224825990384801 0.138321558612176 -5.8360316255694e-07
4470 0.00023172980581541 0.137831058612176 -5.8360316255694e-07
4475 0.000238609096246018 0.137340558612176 -5.8360316255694e-07
4480 0.000245463861676627 0.136850058612176 -5.8360316255694e-07
4485 0.000252294102107236 0.136359558612176 -5.8360316255694e-07
4490 0.000259099817537845 0.135869058612176 -5.8360316255694e-07
4495 0.000265881007968454 0.135378558612176 -5.8360316255694e-07
4500 0.000272637673399062 0.134888058612176 -5.8360316255694e-07
4505 0.000279369813829671 0.134397558612176 -5.8360316255694e-07
4510 0.00028607742926028 0.133907058612176 -5.8360316255694e-07
4515 0.000292760519690889 0.133416558612176 -5.8360316255694e-07
4520 0.000299419085121498 0.132926058612176 -5.8360316255694e-07
4525 0.000306053125552106 0.132435558612176 -5.8360316255694e-07
4530 0.000312662640982715 0.131945058612176 -5.8360316255694e-07
4535 0.000319247631413324 0.131454558612176 -5.8360316255694e-07
4540 0.000325808096843933 0.130964058612176 -5.8360316255694e-07
4545 0.000332344037274542 0.130473558612176 -5.8360316255694e-07
4550 0.00033885545270515 0.129983058612176 -5.8360316255694e-07
4555 0.000345342343135759 0.129492558612177 -5.8360316255694e-07
4560 0.000351804708566368 0.129002058612177 -5.8360316255694e-07
4565 0.000358242548996977 0.128511558612177 -5.8360316255694e-07
4570 0.000364655864427586 0.128021058612177 -5.8360316255694e-07
4575 0.000371044654858195 0.127530558612177 -5.8360316255694e-07
4580 0.000377408920288803 0.127040058612177 -5.8360316255694e-07
4585 0.000383748660719412 0.126549558612177 -5.8360316255694e-07
4590 0.000390063876150021 0.126059058612177 -5.8360316255694e-07
4595 0.00039635456658063 0.125568558612177 -5.8360316255694e-07
4600 0.000402620732011239 0.125078058612177 -5.8360316255694e-07
4605 0.000408862372441848 0.124587558612177 -5.8360316255694e-07
4610 0.000415079487872457 0.124097058612177 -5.8360316255694e-07
4615 0.000421272078303065 0.123606558612177 -5.8360316255694e-07
4620 0.000427440143733674 0.123116058612177 -5.8360316255694e-07
4625 0.000433583684164283 0.122625558612177 -5.8360316255694e-07
4630 0.000439702699594892 0.122135058612177 -5.8360316255694e-07
4635 0.000445797190025501 0.121644558612177 -5.8360316255694e-07
4640 0.00045186715545611 0.121154058612177 -5.8360316255694e-07
4645 0.000457912595886719 0.120663558612177 -5.8360316255694e-07
4650 0.000463933511317327 0.120173058612178 -5.8360316255694e-07
4655 0.000469929901747936 0.119682558612178 -5.8360316255694e-07
4660 0.000475901767178545 0.119192058612178 -5.8360316255694e-07
4665 0.000481849107609154 0.118701558612178 -5.8360316255694e-07
4670 0.000487771923039763 0.118211058612178 -5.8360316255694e-07
4675 0.000493670213470372 0.117720558612178 -5.8360316255694e-07
4680 0.000499543978900981 0.117230058612178 -5.8360316255694e-07
4685 0.00050539321933159 0.116739558612178 -5.8360316255694e-07
4690 0.000511217934762199 0.116249058612178 -5.8360316255694e-07
4695 0.000517018125192807 0.115758558612178 -5.8360316255694e-07
4700 0.000522793790623416 0.115268058612178 -5.8360316255694e-07
4705 0.000528544931054025 0.114777558612178 -5.8360316255694e-07
4710 0.000534271546484634 0.114287058612178 -5.8360316255694e-07
4715 0.000539973636915243 0.113796558612178 -5.8360316255694e-07
4720 0.000545651202345852 0.113306058612178 -5.8360316255694e-07
4725 0.000551304242776461 0.112815558612178 -5.8360316255694e-07
4730 0.00055693275820707 0.112325058612178 -5.8360316255694e-07
4735 0.000562536748637679 0.111834558612178 -5.8360316255694e-07
4740 0.000568116214068288 0.111344058612178 -5.8360316255694e-07
4745 0.000573671154498897 0.110853558612178 -5.8360316255694e-07
4750 0.000579201569929505 0.110363058612179 -5.8360316255694e-07
4755 0.000584707460360114 0.109872558612179 -5.8360316255694e-07
4760 0.000590188825790723 0.109382058612179 -5.8360316255694e-07
4765 0.000595645666221332 0.108891558612179 -5.8360316255694e-07
4770 0.000601077981651941 0.108401058612179 -5.8360316255694e-07
4775 0.00060648577208255 0.107910558612179 -5.8360316255694e-07
4780 0.000611869037513159 0.107420058612179 -5.8360316255694e-07
4785 0.000617227777943768 0.106929558612179 -5.8360316255694e-07
4790 0.000622561993374377 0.106439058612179 -5.8360316255694e-07
4795 0.000627871683804986 0.105948558612179 -5.8360316255694e-07
4800 0.000633156849235595 0.105458058612179 -5.8360316255694e-07
4805 0.000638417489666204 0.104967558612179 -5.8360316255694e-07
4810 0.000643653605096813 0.104477058612179 -5.8360316255694e-07
4815 0.000648865195527422 0.103986558612179 -5.8360316255694e-07
4820 0.000654052260958031 0.103496058612179 -5.8360316255694e-07
4825 0.000659214801388639 0.103005558612179 -5.8360316255694e-07
4830 0.000664352816819248 0.102515058612179 -5.8360316255694e-07
4835 0.000669466307249857 0.102024558612179 -5.8360316255694e-07
4840 0.000674555272680466 0.101534058612179 -5.8360316255694e-07
4845 0.000679619713111075 0.101043558612179 -5.8360316255694e-07
4850 0.000684659628541684 0.10055305861218 -5.8360316255694e-07
4855 0.000689675018972293 0.10006255861218 -5.8360316255694e-07
4860 0.000694665884402902 0.0995720586121796 -5.8360316255694e-07
4865 0.000699632224833511 0.0990815586121797 -5.8360316255694e-07
4870 0.00070457404026412 0.0985910586121797 -5.8360316255694e-07
4875 0.000709491330694729 0.0981005586121798 -5.8360316255694e-07
4880 0.000714384096125338 0.0976100586121798 -5.8360316255694e-07
4885 0.000719252336555947 0.0971195586121799 -5.8360316255694e-07
4890 0.000724096051986556 0.0966290586121799 -5.8360316255694e-07
4895 0.000728915242417165 0.09613855861218 -5.8360316255694e-07
4900 0.000733709907847774 0.09564805861218 -5.8360316255694e-07
4905 0.000738480048278383 0.0951575586121801 -5.8360316255694e-07
4910 0.000743225663708992 0.0946670586121801 -5.8360316255694e-07
4915 0.000747946754139601 0.0941765586121802 -5.8360316255694e-07
4920 0.00075264331957021 0.0936860586121802 -5.8360316255694e-07
4925 0.000757315360000819 0.0931955586121803 -5.8360316255694e-07
4930 0.000761962875431428 0.0927050586121803 -5.8360316255694e-07
4935 0.000766585865862037 0.0922145586121804 -5.8360316255694e-07
4940 0.000771184331292646 0.0917240586121804 -5.8360316255694e-07
4945 0.000775758271723256 0.0912335586121805 -5.8360316255694e-07
4950 0.000780307687153865 0.0907430586121805 -5.8360316255694e-07
4955 0.000784832577584474 0.0902525586121806 -5.8360316255694e-07
4960 0.000789332943015083 0.0897620586121806 -5.8360316255694e-07
4965 0.000793808783445692 0.0892715586121807 -5.8360316255694e-07
4970 0.000798260098876301 0.0887810586121807 -5.8360316255694e-07
4975 0.00080268688930691 0.0882905586121808 -5.8360316255694e-07
4980 0.000807089154737519 0.0878000586121808 -5.8360316255694e-07
4985 0.000811466895168128 0.0873095586121809 -5.8360316255694e-07
4990 0.000815820110598737 0.0868190586121809 -5.8360316255694e-07
4995 0.000820148801029346 0.086328558612181 -5.8360316255694e-07
5000 0.000824452966459955 0.085887108612181 0
    5000            0            0            0            0            0 
Loop time of 0.212354 on 8 procs for 5000 steps with 1 atoms

85.0% CPU use with 8 MPI tasks x no OpenMP threads

MPI task timing breakdown:
Section |  min time  |  avg time  |  max time  |%varavg| %total
---------------------------------------------------------------
Pair    | 0.0036643  | 0.0040762  | 0.0043294  |   0.3 |  1.92
Neigh   | 7.1526e-06 | 9.0897e-06 | 1.1206e-05 |   0.0 |  0.00
Comm    | 0.049801   | 0.057457   | 0.06332    |   1.8 | 27.06
Output  | 2.1935e-05 | 2.3603e-05 | 2.5988e-05 |   0.0 |  0.01
Modify  | 0.14042    | 0.14656    | 0.15395    |   1.2 | 69.02
Other   |            | 0.004226   |            |       |  1.99

Nlocal:    0.125 ave 1 max 0 min
Histogram: 7 0 0 0 0 0 0 0 0 1
Nghost:    4.875 ave 6 max 4 min
Histogram: 4 0 0 0 0 1 0 0 0 3
Neighs:    0 ave 0 max 0 min
Histogram: 8 0 0 0 0 0 0 0 0 0

Total # of neighbors = 0
Ave neighs/atom = 0
Neighbor list builds = 3
Dangerous builds = 0

Total wall time: 0:00:00
